# vtk DataFile Version 2.0
Output from ovf2vtk (version 0.1.23), Mon Apr 18 12:09:44 2016, infile=C:\Users\Harry\Documents\Examples\ellipsoidwrap.omf. Calling command line was 'C:\Users\Harry\Anaconda\Scripts\winovf2vtk.py --add all --verbose --ascii --surface-effects C:\Users\Harr
ASCII
DATASET RECTILINEAR_GRID
DIMENSIONS 24 8 4
X_COORDINATES 24 int
0 1 2 3 4 5 6 7 8 9 10 11 12 13 14 15 16 17 18 19 20 21 22 23
Y_COORDINATES 8 int
0 1 2 3 4 5 6 7
Z_COORDINATES 4 int
0 1 2 3
POINT_DATA 768
VECTORS /home/donahue/mag/oommf/app/oxs/examples/oxs-Oxs_MinDriver-Magnetization-00-0000475.omf/1 float
0.0 -0.0 0.0
0.0 -0.0 0.0
0.0 -0.0 0.0
0.0 -0.0 0.0
0.0 -0.0 0.0
0.0 -0.0 0.0
0.0 -0.0 0.0
0.0 -0.0 0.0
0.0 -0.0 0.0
0.0 -0.0 0.0
0.0 -0.0 0.0
0.0 -0.0 0.0
0.0 -0.0 0.0
0.0 -0.0 0.0
0.0 -0.0 0.0
0.0 -0.0 0.0
0.0 -0.0 0.0
0.0 -0.0 0.0
0.0 -0.0 0.0
0.0 -0.0 0.0
0.0 -0.0 0.0
0.0 -0.0 0.0
0.0 -0.0 0.0
0.0 -0.0 0.0
0.0 -0.0 0.0
0.0 -0.0 0.0
0.0 -0.0 0.0
0.0 -0.0 0.0
0.0 -0.0 0.0
0.0 -0.0 0.0
0.0 -0.0 0.0
0.0 -0.0 0.0
0.0 -0.0 0.0
0.0194430457266 -0.710389652702 0.703539946732
0.0135687371429 -0.716336825168 0.697622636192
0.00469030146587 -0.719388523286 0.694592038118
-0.00469030146587 -0.719388523286 0.694592038118
-0.0135687371429 -0.716336825168 0.697622636192
-0.0194430457266 -0.710389652702 0.703539946732
0.0 -0.0 0.0
0.0 -0.0 0.0
0.0 -0.0 0.0
0.0 -0.0 0.0
0.0 -0.0 0.0
0.0 -0.0 0.0
0.0 -0.0 0.0
0.0 -0.0 0.0
0.0 -0.0 0.0
0.0 -0.0 0.0
0.0 -0.0 0.0
0.0 -0.0 0.0
0.0 -0.0 0.0
0.0 -0.0 0.0
0.00104387648576 -0.820750987101 0.571285052095
0.0221186515854 -0.830451285123 0.556651933421
0.0439681621305 -0.84446606523 0.53380130143
0.0668763349545 -0.863110934006 0.50056670616
0.052337354364 -0.874621007805 0.481973872237
0.0239188049366 -0.886145207903 0.462789879465
0.00676703526185 -0.889965746311 0.455977068769
-0.00676703526185 -0.889965746311 0.455977068769
-0.0239188049366 -0.886145207903 0.462789879465
-0.052337354364 -0.874621007805 0.481973872237
-0.0668763349545 -0.863110934006 0.50056670616
-0.0439681621305 -0.84446606523 0.53380130143
-0.0221186515854 -0.830451285123 0.556651933421
-0.00104387648576 -0.820750987101 0.571285052095
0.0 -0.0 0.0
0.0 -0.0 0.0
0.0 -0.0 0.0
0.0 -0.0 0.0
0.0 -0.0 0.0
0.0 -0.0 0.0
0.0 -0.0 0.0
0.0 -0.0 0.0
0.0 -0.0 0.0
-0.00919975965087 -0.973328919238 0.229229339139
0.0130450246723 -0.967825682153 0.251283250769
0.01128566418 -0.97097441663 0.238916837064
0.0155124845984 -0.974224896232 0.22504483988
0.0202423402642 -0.977790982419 0.208602317959
0.0172275634976 -0.980871588788 0.193891877163
0.00927748224271 -0.983070344464 0.182993347002
0.00275195894075 -0.98397430848 0.178288782331
-0.00275195894075 -0.98397430848 0.178288782331
-0.00927748224271 -0.983070344464 0.182993347002
-0.0172275634976 -0.980871588788 0.193891877163
-0.0202423402642 -0.977790982419 0.208602317959
-0.0155124845984 -0.974224896232 0.22504483988
-0.01128566418 -0.97097441663 0.238916837064
-0.0130450246723 -0.967825682153 0.251283250769
0.00919975965087 -0.973328919238 0.229229339139
0.0 -0.0 0.0
0.0 -0.0 0.0
0.0 -0.0 0.0
0.0 -0.0 0.0
0.0 -0.0 -0.0
0.0 -0.0 -0.0
0.0 -0.0 -0.0
0.0 -0.0 -0.0
0.00919975965087 -0.973328919238 -0.229229339139
-0.0130450246723 -0.967825682153 -0.251283250769
-0.01128566418 -0.97097441663 -0.238916837064
-0.0155124845984 -0.974224896232 -0.22504483988
-0.0202423402642 -0.977790982419 -0.208602317959
-0.0172275634976 -0.980871588788 -0.193891877163
-0.00927748224271 -0.983070344464 -0.182993347002
-0.00275195894075 -0.98397430848 -0.178288782331
0.00275195894075 -0.98397430848 -0.178288782331
0.00927748224271 -0.983070344464 -0.182993347002
0.0172275634976 -0.980871588788 -0.193891877163
0.0202423402642 -0.977790982419 -0.208602317959
0.0155124845984 -0.974224896232 -0.22504483988
0.01128566418 -0.97097441663 -0.238916837064
0.0130450246723 -0.967825682153 -0.251283250769
-0.00919975965087 -0.973328919238 -0.229229339139
0.0 -0.0 -0.0
0.0 -0.0 -0.0
0.0 -0.0 -0.0
0.0 -0.0 -0.0
0.0 -0.0 -0.0
0.0 -0.0 -0.0
0.0 -0.0 -0.0
0.0 -0.0 -0.0
0.0 -0.0 -0.0
-0.00104387648576 -0.820750987101 -0.571285052095
-0.0221186515854 -0.830451285123 -0.556651933421
-0.0439681621305 -0.84446606523 -0.53380130143
-0.0668763349545 -0.863110934006 -0.50056670616
-0.052337354364 -0.874621007805 -0.481973872237
-0.0239188049366 -0.886145207903 -0.462789879465
-0.00676703526185 -0.889965746311 -0.455977068769
0.00676703526185 -0.889965746311 -0.455977068769
0.0239188049366 -0.886145207903 -0.462789879465
0.052337354364 -0.874621007805 -0.481973872237
0.0668763349545 -0.863110934006 -0.50056670616
0.0439681621305 -0.84446606523 -0.53380130143
0.0221186515854 -0.830451285123 -0.556651933421
0.00104387648576 -0.820750987101 -0.571285052095
0.0 -0.0 -0.0
0.0 -0.0 -0.0
0.0 -0.0 -0.0
0.0 -0.0 -0.0
0.0 -0.0 -0.0
0.0 -0.0 -0.0
0.0 -0.0 -0.0
0.0 -0.0 -0.0
0.0 -0.0 -0.0
0.0 -0.0 -0.0
0.0 -0.0 -0.0
0.0 -0.0 -0.0
0.0 -0.0 -0.0
0.0 -0.0 -0.0
-0.0194430457266 -0.710389652702 -0.703539946732
-0.0135687371429 -0.716336825168 -0.697622636192
-0.00469030146587 -0.719388523286 -0.694592038118
0.00469030146587 -0.719388523286 -0.694592038118
0.0135687371429 -0.716336825168 -0.697622636192
0.0194430457266 -0.710389652702 -0.703539946732
0.0 -0.0 -0.0
0.0 -0.0 -0.0
0.0 -0.0 -0.0
0.0 -0.0 -0.0
0.0 -0.0 -0.0
0.0 -0.0 -0.0
0.0 -0.0 -0.0
0.0 -0.0 -0.0
0.0 -0.0 -0.0
0.0 -0.0 -0.0
0.0 -0.0 -0.0
0.0 -0.0 -0.0
0.0 -0.0 -0.0
0.0 -0.0 -0.0
0.0 -0.0 -0.0
0.0 -0.0 -0.0
0.0 -0.0 -0.0
0.0 -0.0 -0.0
0.0 -0.0 -0.0
0.0 -0.0 -0.0
0.0 -0.0 -0.0
0.0 -0.0 -0.0
0.0 -0.0 -0.0
0.0 -0.0 -0.0
0.0 -0.0 -0.0
0.0 -0.0 -0.0
0.0 -0.0 -0.0
0.0 -0.0 -0.0
0.0 -0.0 -0.0
0.0 -0.0 -0.0
0.0 -0.0 -0.0
0.0 -0.0 -0.0
0.0 -0.0 -0.0
0.0 -0.0 0.0
0.0 -0.0 0.0
0.0 -0.0 0.0
0.0 -0.0 0.0
0.0 -0.0 0.0
0.0 -0.0 0.0
0.0 -0.0 0.0
0.0425878862364 -0.106017489576 0.993451804347
-0.00477399476656 -0.129080276844 0.991622597458
-0.0206497920159 -0.171685496856 0.984935314139
-0.0100541847579 -0.186916867332 0.982324273148
-0.00262090532741 -0.190490895837 0.981685430584
0.00262090532741 -0.190490895837 0.981685430584
0.0100541847579 -0.186916867332 0.982324273148
0.0206497920159 -0.171685496856 0.984935314139
0.00477399476656 -0.129080276844 0.991622597458
-0.0425878862364 -0.106017489576 0.993451804347
0.0 -0.0 0.0
0.0 -0.0 0.0
0.0 -0.0 0.0
0.0 -0.0 0.0
0.0 -0.0 0.0
0.0 -0.0 0.0
0.0 -0.0 0.0
0.0 -0.0 0.0
0.0 -0.0 0.0
0.0 -0.0 0.0
0.0305283842894 -0.174434746114 0.984195322496
-0.0153737557231 -0.203333878465 0.97898873772
-0.0160736939773 -0.251101277794 0.967827351083
0.014121328063 -0.28698574648 0.95783075838
0.0214354128757 -0.30578406741 0.951859505639
-0.00783755886475 -0.330667456147 0.94371476959
-0.0125364936906 -0.380314368684 0.924772294831
-0.00186933909137 -0.386246669791 0.922393592738
0.000166069711304 -0.388419616657 0.921482535769
-0.000166069711304 -0.388419616657 0.921482535769
0.00186933909137 -0.386246669791 0.922393592738
0.0125364936906 -0.380314368684 0.924772294831
0.00783755886475 -0.330667456147 0.94371476959
-0.0214354128757 -0.30578406741 0.951859505639
-0.014121328063 -0.28698574648 0.95783075838
0.0160736939773 -0.251101277794 0.967827351083
0.0153737557231 -0.203333878465 0.97898873772
-0.0305283842894 -0.174434746114 0.984195322496
0.0 -0.0 0.0
0.0 -0.0 0.0
0.0 -0.0 0.0
0.0 -0.0 0.0
0.0734074243057 -0.396745342205 0.914988788727
0.0467523471597 -0.42322145641 0.904819163745
0.0068635398355 -0.433495002087 0.901129815157
-0.0314201442547 -0.46373285472 0.885417733235
-0.0195764371924 -0.51439975171 0.857327018658
0.00650268121951 -0.531381591342 0.847107564194
0.018847159484 -0.551996751197 0.833633219386
0.0201895007481 -0.576195401796 0.817062532582
0.0155689059809 -0.599798840429 0.799999332613
0.0090596356544 -0.612910490985 0.790100372315
0.00289470274754 -0.618509393522 0.785772002349
-0.00289470274754 -0.618509393522 0.785772002349
-0.0090596356544 -0.612910490985 0.790100372315
-0.0155689059809 -0.599798840429 0.799999332613
-0.0201895007481 -0.576195401796 0.817062532582
-0.018847159484 -0.551996751197 0.833633219386
-0.00650268121951 -0.531381591342 0.847107564194
0.0195764371924 -0.51439975171 0.857327018658
0.0314201442547 -0.46373285472 0.885417733235
-0.0068635398355 -0.433495002087 0.901129815157
-0.0467523471597 -0.42322145641 0.904819163745
-0.0734074243057 -0.396745342205 0.914988788727
0.0 -0.0 0.0
0.0388602826429 -0.833810483594 0.550681276726
0.0445005843295 -0.790262735362 0.611150127458
0.019180844902 -0.803542232593 0.594938618233
-0.00944054191955 -0.811158990715 0.584749442928
-0.0177344004036 -0.83965573212 0.542829318684
-0.00388260709748 -0.849430655156 0.527685924661
0.00428478826205 -0.860523794476 0.509392127232
0.00930066379223 -0.873232696459 0.487214670079
0.0112029608751 -0.887221310128 0.461207912635
0.00954262511525 -0.89998552522 0.43581529163
0.00568730367293 -0.908496293382 0.417854117911
0.00180370378562 -0.912366720876 0.409369814211
-0.00180370378562 -0.912366720876 0.409369814211
-0.00568730367293 -0.908496293382 0.417854117911
-0.00954262511525 -0.89998552522 0.43581529163
-0.0112029608751 -0.887221310128 0.461207912635
-0.00930066379223 -0.873232696459 0.487214670079
-0.00428478826205 -0.860523794476 0.509392127232
0.00388260709748 -0.849430655156 0.527685924661
0.0177344004036 -0.83965573212 0.542829318684
0.00944054191955 -0.811158990715 0.584749442928
-0.019180844902 -0.803542232593 0.594938618233
-0.0445005843295 -0.790262735362 0.611150127458
-0.0388602826429 -0.833810483594 0.550681276726
-0.0388602826429 -0.833810483594 -0.550681276726
-0.0445005843295 -0.790262735362 -0.611150127458
-0.019180844902 -0.803542232593 -0.594938618233
0.00944054191955 -0.811158990715 -0.584749442928
0.0177344004036 -0.83965573212 -0.542829318684
0.00388260709748 -0.849430655156 -0.527685924661
-0.00428478826205 -0.860523794476 -0.509392127232
-0.00930066379223 -0.873232696459 -0.487214670079
-0.0112029608751 -0.887221310128 -0.461207912635
-0.00954262511525 -0.89998552522 -0.43581529163
-0.00568730367293 -0.908496293382 -0.417854117911
-0.00180370378562 -0.912366720876 -0.409369814211
0.00180370378562 -0.912366720876 -0.409369814211
0.00568730367293 -0.908496293382 -0.417854117911
0.00954262511525 -0.89998552522 -0.43581529163
0.0112029608751 -0.887221310128 -0.461207912635
0.00930066379223 -0.873232696459 -0.487214670079
0.00428478826205 -0.860523794476 -0.509392127232
-0.00388260709748 -0.849430655156 -0.527685924661
-0.0177344004036 -0.83965573212 -0.542829318684
-0.00944054191955 -0.811158990715 -0.584749442928
0.019180844902 -0.803542232593 -0.594938618233
0.0445005843295 -0.790262735362 -0.611150127458
0.0388602826429 -0.833810483594 -0.550681276726
0.0 -0.0 -0.0
-0.0734074243057 -0.396745342205 -0.914988788727
-0.0467523471597 -0.42322145641 -0.904819163745
-0.0068635398355 -0.433495002087 -0.901129815157
0.0314201442547 -0.46373285472 -0.885417733235
0.0195764371924 -0.51439975171 -0.857327018658
-0.00650268121951 -0.531381591342 -0.847107564194
-0.018847159484 -0.551996751197 -0.833633219386
-0.0201895007481 -0.576195401796 -0.817062532582
-0.0155689059809 -0.599798840429 -0.799999332613
-0.0090596356544 -0.612910490985 -0.790100372315
-0.00289470274754 -0.618509393522 -0.785772002349
0.00289470274754 -0.618509393522 -0.785772002349
0.0090596356544 -0.612910490985 -0.790100372315
0.0155689059809 -0.599798840429 -0.799999332613
0.0201895007481 -0.576195401796 -0.817062532582
0.018847159484 -0.551996751197 -0.833633219386
0.00650268121951 -0.531381591342 -0.847107564194
-0.0195764371924 -0.51439975171 -0.857327018658
-0.0314201442547 -0.46373285472 -0.885417733235
0.0068635398355 -0.433495002087 -0.901129815157
0.0467523471597 -0.42322145641 -0.904819163745
0.0734074243057 -0.396745342205 -0.914988788727
0.0 -0.0 -0.0
0.0 -0.0 -0.0
0.0 -0.0 -0.0
0.0 -0.0 -0.0
-0.0305283842894 -0.174434746114 -0.984195322496
0.0153737557231 -0.203333878465 -0.97898873772
0.0160736939773 -0.251101277794 -0.967827351083
-0.014121328063 -0.28698574648 -0.95783075838
-0.0214354128757 -0.30578406741 -0.951859505639
0.00783755886475 -0.330667456147 -0.94371476959
0.0125364936906 -0.380314368684 -0.924772294831
0.00186933909137 -0.386246669791 -0.922393592738
-0.000166069711304 -0.388419616657 -0.921482535769
0.000166069711304 -0.388419616657 -0.921482535769
-0.00186933909137 -0.386246669791 -0.922393592738
-0.0125364936906 -0.380314368684 -0.924772294831
-0.00783755886475 -0.330667456147 -0.94371476959
0.0214354128757 -0.30578406741 -0.951859505639
0.014121328063 -0.28698574648 -0.95783075838
-0.0160736939773 -0.251101277794 -0.967827351083
-0.0153737557231 -0.203333878465 -0.97898873772
0.0305283842894 -0.174434746114 -0.984195322496
0.0 -0.0 -0.0
0.0 -0.0 -0.0
0.0 -0.0 -0.0
0.0 -0.0 -0.0
0.0 -0.0 -0.0
0.0 -0.0 -0.0
0.0 -0.0 -0.0
0.0 -0.0 -0.0
0.0 -0.0 -0.0
0.0 -0.0 -0.0
-0.0425878862364 -0.106017489576 -0.993451804347
0.00477399476656 -0.129080276844 -0.991622597458
0.0206497920159 -0.171685496856 -0.984935314139
0.0100541847579 -0.186916867332 -0.982324273148
0.00262090532741 -0.190490895837 -0.981685430584
-0.00262090532741 -0.190490895837 -0.981685430584
-0.0100541847579 -0.186916867332 -0.982324273148
-0.0206497920159 -0.171685496856 -0.984935314139
-0.00477399476656 -0.129080276844 -0.991622597458
0.0425878862364 -0.106017489576 -0.993451804347
0.0 -0.0 -0.0
0.0 -0.0 -0.0
0.0 -0.0 -0.0
0.0 -0.0 -0.0
0.0 -0.0 -0.0
0.0 -0.0 -0.0
0.0 -0.0 -0.0
0.0 0.0 0.0
0.0 0.0 0.0
0.0 0.0 0.0
0.0 0.0 0.0
0.0 0.0 0.0
0.0 0.0 0.0
0.0 0.0 0.0
-0.0425878862364 0.106017489576 0.993451804347
0.00477399476656 0.129080276844 0.991622597458
0.0206497920159 0.171685496856 0.984935314139
0.0100541847579 0.186916867332 0.982324273148
0.00262090532741 0.190490895837 0.981685430584
-0.00262090532741 0.190490895837 0.981685430584
-0.0100541847579 0.186916867332 0.982324273148
-0.0206497920159 0.171685496856 0.984935314139
-0.00477399476656 0.129080276844 0.991622597458
0.0425878862364 0.106017489576 0.993451804347
0.0 0.0 0.0
0.0 0.0 0.0
0.0 0.0 0.0
0.0 0.0 0.0
0.0 0.0 0.0
0.0 0.0 0.0
0.0 0.0 0.0
0.0 0.0 0.0
0.0 0.0 0.0
0.0 0.0 0.0
-0.0305283842894 0.174434746114 0.984195322496
0.0153737557231 0.203333878465 0.97898873772
0.0160736939773 0.251101277794 0.967827351083
-0.014121328063 0.28698574648 0.95783075838
-0.0214354128757 0.30578406741 0.951859505639
0.00783755886475 0.330667456147 0.94371476959
0.0125364936906 0.380314368684 0.924772294831
0.00186933909137 0.386246669791 0.922393592738
-0.000166069711304 0.388419616657 0.921482535769
0.000166069711304 0.388419616657 0.921482535769
-0.00186933909137 0.386246669791 0.922393592738
-0.0125364936906 0.380314368684 0.924772294831
-0.00783755886475 0.330667456147 0.94371476959
0.0214354128757 0.30578406741 0.951859505639
0.014121328063 0.28698574648 0.95783075838
-0.0160736939773 0.251101277794 0.967827351083
-0.0153737557231 0.203333878465 0.97898873772
0.0305283842894 0.174434746114 0.984195322496
0.0 0.0 0.0
0.0 0.0 0.0
0.0 0.0 0.0
0.0 0.0 0.0
-0.0734074243057 0.396745342205 0.914988788727
-0.0467523471597 0.42322145641 0.904819163745
-0.0068635398355 0.433495002087 0.901129815157
0.0314201442547 0.46373285472 0.885417733235
0.0195764371924 0.51439975171 0.857327018658
-0.00650268121951 0.531381591342 0.847107564194
-0.018847159484 0.551996751197 0.833633219386
-0.0201895007481 0.576195401796 0.817062532582
-0.0155689059809 0.599798840429 0.799999332613
-0.0090596356544 0.612910490985 0.790100372315
-0.00289470274754 0.618509393522 0.785772002349
0.00289470274754 0.618509393522 0.785772002349
0.0090596356544 0.612910490985 0.790100372315
0.0155689059809 0.599798840429 0.799999332613
0.0201895007481 0.576195401796 0.817062532582
0.018847159484 0.551996751197 0.833633219386
0.00650268121951 0.531381591342 0.847107564194
-0.0195764371924 0.51439975171 0.857327018658
-0.0314201442547 0.46373285472 0.885417733235
0.0068635398355 0.433495002087 0.901129815157
0.0467523471597 0.42322145641 0.904819163745
0.0734074243057 0.396745342205 0.914988788727
0.0 0.0 0.0
-0.0388602826429 0.833810483594 0.550681276726
-0.0445005843295 0.790262735362 0.611150127458
-0.019180844902 0.803542232593 0.594938618233
0.00944054191955 0.811158990715 0.584749442928
0.0177344004036 0.83965573212 0.542829318684
0.00388260709748 0.849430655156 0.527685924661
-0.00428478826205 0.860523794476 0.509392127232
-0.00930066379223 0.873232696459 0.487214670079
-0.0112029608751 0.887221310128 0.461207912635
-0.00954262511525 0.89998552522 0.43581529163
-0.00568730367293 0.908496293382 0.417854117911
-0.00180370378562 0.912366720876 0.409369814211
0.00180370378562 0.912366720876 0.409369814211
0.00568730367293 0.908496293382 0.417854117911
0.00954262511525 0.89998552522 0.43581529163
0.0112029608751 0.887221310128 0.461207912635
0.00930066379223 0.873232696459 0.487214670079
0.00428478826205 0.860523794476 0.509392127232
-0.00388260709748 0.849430655156 0.527685924661
-0.0177344004036 0.83965573212 0.542829318684
-0.00944054191955 0.811158990715 0.584749442928
0.019180844902 0.803542232593 0.594938618233
0.0445005843295 0.790262735362 0.611150127458
0.0388602826429 0.833810483594 0.550681276726
0.0388602826429 0.833810483594 -0.550681276726
0.0445005843295 0.790262735362 -0.611150127458
0.019180844902 0.803542232593 -0.594938618233
-0.00944054191955 0.811158990715 -0.584749442928
-0.0177344004036 0.83965573212 -0.542829318684
-0.00388260709748 0.849430655156 -0.527685924661
0.00428478826205 0.860523794476 -0.509392127232
0.00930066379223 0.873232696459 -0.487214670079
0.0112029608751 0.887221310128 -0.461207912635
0.00954262511525 0.89998552522 -0.43581529163
0.00568730367293 0.908496293382 -0.417854117911
0.00180370378562 0.912366720876 -0.409369814211
-0.00180370378562 0.912366720876 -0.409369814211
-0.00568730367293 0.908496293382 -0.417854117911
-0.00954262511525 0.89998552522 -0.43581529163
-0.0112029608751 0.887221310128 -0.461207912635
-0.00930066379223 0.873232696459 -0.487214670079
-0.00428478826205 0.860523794476 -0.509392127232
0.00388260709748 0.849430655156 -0.527685924661
0.0177344004036 0.83965573212 -0.542829318684
0.00944054191955 0.811158990715 -0.584749442928
-0.019180844902 0.803542232593 -0.594938618233
-0.0445005843295 0.790262735362 -0.611150127458
-0.0388602826429 0.833810483594 -0.550681276726
0.0 0.0 -0.0
0.0734074243057 0.396745342205 -0.914988788727
0.0467523471597 0.42322145641 -0.904819163745
0.0068635398355 0.433495002087 -0.901129815157
-0.0314201442547 0.46373285472 -0.885417733235
-0.0195764371924 0.51439975171 -0.857327018658
0.00650268121951 0.531381591342 -0.847107564194
0.018847159484 0.551996751197 -0.833633219386
0.0201895007481 0.576195401796 -0.817062532582
0.0155689059809 0.599798840429 -0.799999332613
0.0090596356544 0.612910490985 -0.790100372315
0.00289470274754 0.618509393522 -0.785772002349
-0.00289470274754 0.618509393522 -0.785772002349
-0.0090596356544 0.612910490985 -0.790100372315
-0.0155689059809 0.599798840429 -0.799999332613
-0.0201895007481 0.576195401796 -0.817062532582
-0.018847159484 0.551996751197 -0.833633219386
-0.00650268121951 0.531381591342 -0.847107564194
0.0195764371924 0.51439975171 -0.857327018658
0.0314201442547 0.46373285472 -0.885417733235
-0.0068635398355 0.433495002087 -0.901129815157
-0.0467523471597 0.42322145641 -0.904819163745
-0.0734074243057 0.396745342205 -0.914988788727
0.0 0.0 -0.0
0.0 0.0 -0.0
0.0 0.0 -0.0
0.0 0.0 -0.0
0.0305283842894 0.174434746114 -0.984195322496
-0.0153737557231 0.203333878465 -0.97898873772
-0.0160736939773 0.251101277794 -0.967827351083
0.014121328063 0.28698574648 -0.95783075838
0.0214354128757 0.30578406741 -0.951859505639
-0.00783755886475 0.330667456147 -0.94371476959
-0.0125364936906 0.380314368684 -0.924772294831
-0.00186933909137 0.386246669791 -0.922393592738
0.000166069711304 0.388419616657 -0.921482535769
-0.000166069711304 0.388419616657 -0.921482535769
0.00186933909137 0.386246669791 -0.922393592738
0.0125364936906 0.380314368684 -0.924772294831
0.00783755886475 0.330667456147 -0.94371476959
-0.0214354128757 0.30578406741 -0.951859505639
-0.014121328063 0.28698574648 -0.95783075838
0.0160736939773 0.251101277794 -0.967827351083
0.0153737557231 0.203333878465 -0.97898873772
-0.0305283842894 0.174434746114 -0.984195322496
0.0 0.0 -0.0
0.0 0.0 -0.0
0.0 0.0 -0.0
0.0 0.0 -0.0
0.0 0.0 -0.0
0.0 0.0 -0.0
0.0 0.0 -0.0
0.0 0.0 -0.0
0.0 0.0 -0.0
0.0 0.0 -0.0
0.0425878862364 0.106017489576 -0.993451804347
-0.00477399476656 0.129080276844 -0.991622597458
-0.0206497920159 0.171685496856 -0.984935314139
-0.0100541847579 0.186916867332 -0.982324273148
-0.00262090532741 0.190490895837 -0.981685430584
0.00262090532741 0.190490895837 -0.981685430584
0.0100541847579 0.186916867332 -0.982324273148
0.0206497920159 0.171685496856 -0.984935314139
0.00477399476656 0.129080276844 -0.991622597458
-0.0425878862364 0.106017489576 -0.993451804347
0.0 0.0 -0.0
0.0 0.0 -0.0
0.0 0.0 -0.0
0.0 0.0 -0.0
0.0 0.0 -0.0
0.0 0.0 -0.0
0.0 0.0 -0.0
0.0 0.0 0.0
0.0 0.0 0.0
0.0 0.0 0.0
0.0 0.0 0.0
0.0 0.0 0.0
0.0 0.0 0.0
0.0 0.0 0.0
0.0 0.0 0.0
0.0 0.0 0.0
0.0 0.0 0.0
0.0 0.0 0.0
0.0 0.0 0.0
0.0 0.0 0.0
0.0 0.0 0.0
0.0 0.0 0.0
0.0 0.0 0.0
0.0 0.0 0.0
0.0 0.0 0.0
0.0 0.0 0.0
0.0 0.0 0.0
0.0 0.0 0.0
0.0 0.0 0.0
0.0 0.0 0.0
0.0 0.0 0.0
0.0 0.0 0.0
0.0 0.0 0.0
0.0 0.0 0.0
0.0 0.0 0.0
0.0 0.0 0.0
0.0 0.0 0.0
0.0 0.0 0.0
0.0 0.0 0.0
0.0 0.0 0.0
-0.0194430457266 0.710389652702 0.703539946732
-0.0135687371429 0.716336825168 0.697622636192
-0.00469030146587 0.719388523286 0.694592038118
0.00469030146587 0.719388523286 0.694592038118
0.0135687371429 0.716336825168 0.697622636192
0.0194430457266 0.710389652702 0.703539946732
0.0 0.0 0.0
0.0 0.0 0.0
0.0 0.0 0.0
0.0 0.0 0.0
0.0 0.0 0.0
0.0 0.0 0.0
0.0 0.0 0.0
0.0 0.0 0.0
0.0 0.0 0.0
0.0 0.0 0.0
0.0 0.0 0.0
0.0 0.0 0.0
0.0 0.0 0.0
0.0 0.0 0.0
-0.00104387648576 0.820750987101 0.571285052095
-0.0221186515854 0.830451285123 0.556651933421
-0.0439681621305 0.84446606523 0.53380130143
-0.0668763349545 0.863110934006 0.50056670616
-0.052337354364 0.874621007805 0.481973872237
-0.0239188049366 0.886145207903 0.462789879465
-0.00676703526185 0.889965746311 0.455977068769
0.00676703526185 0.889965746311 0.455977068769
0.0239188049366 0.886145207903 0.462789879465
0.052337354364 0.874621007805 0.481973872237
0.0668763349545 0.863110934006 0.50056670616
0.0439681621305 0.84446606523 0.53380130143
0.0221186515854 0.830451285123 0.556651933421
0.00104387648576 0.820750987101 0.571285052095
0.0 0.0 0.0
0.0 0.0 0.0
0.0 0.0 0.0
0.0 0.0 0.0
0.0 0.0 0.0
0.0 0.0 0.0
0.0 0.0 0.0
0.0 0.0 0.0
0.0 0.0 0.0
0.00919975965087 0.973328919238 0.229229339139
-0.0130450246723 0.967825682153 0.251283250769
-0.01128566418 0.97097441663 0.238916837064
-0.0155124845984 0.974224896232 0.22504483988
-0.0202423402642 0.977790982419 0.208602317959
-0.0172275634976 0.980871588788 0.193891877163
-0.00927748224271 0.983070344464 0.182993347002
-0.00275195894075 0.98397430848 0.178288782331
0.00275195894075 0.98397430848 0.178288782331
0.00927748224271 0.983070344464 0.182993347002
0.0172275634976 0.980871588788 0.193891877163
0.0202423402642 0.977790982419 0.208602317959
0.0155124845984 0.974224896232 0.22504483988
0.01128566418 0.97097441663 0.238916837064
0.0130450246723 0.967825682153 0.251283250769
-0.00919975965087 0.973328919238 0.229229339139
0.0 0.0 0.0
0.0 0.0 0.0
0.0 0.0 0.0
0.0 0.0 0.0
0.0 0.0 -0.0
0.0 0.0 -0.0
0.0 0.0 -0.0
0.0 0.0 -0.0
-0.00919975965087 0.973328919238 -0.229229339139
0.0130450246723 0.967825682153 -0.251283250769
0.01128566418 0.97097441663 -0.238916837064
0.0155124845984 0.974224896232 -0.22504483988
0.0202423402642 0.977790982419 -0.208602317959
0.0172275634976 0.980871588788 -0.193891877163
0.00927748224271 0.983070344464 -0.182993347002
0.00275195894075 0.98397430848 -0.178288782331
-0.00275195894075 0.98397430848 -0.178288782331
-0.00927748224271 0.983070344464 -0.182993347002
-0.0172275634976 0.980871588788 -0.193891877163
-0.0202423402642 0.977790982419 -0.208602317959
-0.0155124845984 0.974224896232 -0.22504483988
-0.01128566418 0.97097441663 -0.238916837064
-0.0130450246723 0.967825682153 -0.251283250769
0.00919975965087 0.973328919238 -0.229229339139
0.0 0.0 -0.0
0.0 0.0 -0.0
0.0 0.0 -0.0
0.0 0.0 -0.0
0.0 0.0 -0.0
0.0 0.0 -0.0
0.0 0.0 -0.0
0.0 0.0 -0.0
0.0 0.0 -0.0
0.00104387648576 0.820750987101 -0.571285052095
0.0221186515854 0.830451285123 -0.556651933421
0.0439681621305 0.84446606523 -0.53380130143
0.0668763349545 0.863110934006 -0.50056670616
0.052337354364 0.874621007805 -0.481973872237
0.0239188049366 0.886145207903 -0.462789879465
0.00676703526185 0.889965746311 -0.455977068769
-0.00676703526185 0.889965746311 -0.455977068769
-0.0239188049366 0.886145207903 -0.462789879465
-0.052337354364 0.874621007805 -0.481973872237
-0.0668763349545 0.863110934006 -0.50056670616
-0.0439681621305 0.84446606523 -0.53380130143
-0.0221186515854 0.830451285123 -0.556651933421
-0.00104387648576 0.820750987101 -0.571285052095
0.0 0.0 -0.0
0.0 0.0 -0.0
0.0 0.0 -0.0
0.0 0.0 -0.0
0.0 0.0 -0.0
0.0 0.0 -0.0
0.0 0.0 -0.0
0.0 0.0 -0.0
0.0 0.0 -0.0
0.0 0.0 -0.0
0.0 0.0 -0.0
0.0 0.0 -0.0
0.0 0.0 -0.0
0.0 0.0 -0.0
0.0194430457266 0.710389652702 -0.703539946732
0.0135687371429 0.716336825168 -0.697622636192
0.00469030146587 0.719388523286 -0.694592038118
-0.00469030146587 0.719388523286 -0.694592038118
-0.0135687371429 0.716336825168 -0.697622636192
-0.0194430457266 0.710389652702 -0.703539946732
0.0 0.0 -0.0
0.0 0.0 -0.0
0.0 0.0 -0.0
0.0 0.0 -0.0
0.0 0.0 -0.0
0.0 0.0 -0.0
0.0 0.0 -0.0
0.0 0.0 -0.0
0.0 0.0 -0.0
0.0 0.0 -0.0
0.0 0.0 -0.0
0.0 0.0 -0.0
0.0 0.0 -0.0
0.0 0.0 -0.0
0.0 0.0 -0.0
0.0 0.0 -0.0
0.0 0.0 -0.0
0.0 0.0 -0.0
0.0 0.0 -0.0
0.0 0.0 -0.0
0.0 0.0 -0.0
0.0 0.0 -0.0
0.0 0.0 -0.0
0.0 0.0 -0.0
0.0 0.0 -0.0
0.0 0.0 -0.0
0.0 0.0 -0.0
0.0 0.0 -0.0
0.0 0.0 -0.0
0.0 0.0 -0.0
0.0 0.0 -0.0
0.0 0.0 -0.0
0.0 0.0 -0.0
SCALARS x-component float 1
LOOKUP_TABLE default